TITLE = "Fitted Surface"
VARIABLES = "x","y","z","u","v","w" 
ZONE T="fitted Endo Surface", N=5792, E=2865, F=FEPOINT, ET=QUADRILATERAL
2.676161  -0.000000   -0.000000   -0.000000   -0.000000   0.371530 
2.641042  -0.277585   -0.000000   -0.000000   -0.104720   0.368797 
2.561890  -0.544546   -0.000000   -0.000000   -0.209440   0.363947 
2.444300  -0.794201   -0.000000   -0.000000   -0.314159   0.357411 
2.294647  -1.021643   -0.000000   -0.000000   -0.418879   0.349624 
2.119654  -1.223783   -0.000000   -0.000000   -0.523599   0.341017 
1.925977  -1.399304   -0.000000   -0.000000   -0.628319   0.332025 
1.719824  -1.548537   -0.000000   -0.000000   -0.733038   0.323079 
1.506612  -1.673262   -0.000000   -0.000000   -0.837758   0.314613 
1.290651  -1.776429   -0.000000   -0.000000   -0.942478   0.307054 
1.074216  -1.860596   -0.000000   -0.000000   -1.047198   0.300626 
0.857948  -1.926983   -0.000000   -0.000000   -1.151917   0.295312 
0.642215  -1.976533   -0.000000   -0.000000   -1.256637   0.291078 
0.427233  -2.009973   -0.000000   -0.000000   -1.361357   0.287893 
0.213130  -2.027795   -0.000000   -0.000000   -1.466077   0.285722 
0.000000  -2.030259   -0.000000   -0.000000   -1.570796   0.284534 
-0.212038  -2.017403   -0.000000   -0.000000   -1.675516   0.284296 
-0.422786  -1.989054   -0.000000   -0.000000   -1.780236   0.284975 
-0.631892  -1.944763   -0.000000   -0.000000   -1.884956   0.286524 
-0.838526  -1.883361   -0.000000   -0.000000   -1.989675   0.288809 
-1.041257  -1.803510   -0.000000   -0.000000   -2.094395   0.291659 
-1.238093  -1.704089   -0.000000   -0.000000   -2.199115   0.294907 
-1.426540  -1.584333   -0.000000   -0.000000   -2.303835   0.298384 
-1.603675  -1.443955   -0.000000   -0.000000   -2.408554   0.301920 
-1.766254  -1.283259   -0.000000   -0.000000   -2.513274   0.305348 
-1.910833  -1.103220   -0.000000   -0.000000   -2.617994   0.308498 
-2.033917  -0.905558   -0.000000   -0.000000   -2.722714   0.311202 
-2.132507  -0.692894   -0.000000   -0.000000   -2.827433   0.313349 
-2.204626  -0.468608   -0.000000   -0.000000   -2.932153   0.314922 
-2.248857  -0.236364   -0.000000   -0.000000   -3.036873   0.315918 
-2.264311  -0.000000   -0.000000   -0.000000   -3.141593   0.316333 
-2.250646  0.236552   -0.000000   -0.000000   -3.246312   0.316161 
-2.208079  0.469342   -0.000000   -0.000000   -3.351032   0.315399 
-2.137384  0.694478   -0.000000   -0.000000   -3.455752   0.314042 
-2.039878  0.908212   -0.000000   -0.000000   -3.560472   0.312086 
-1.917483  1.107059   -0.000000   -0.000000   -3.665191   0.309539 
-1.773358  1.288420   -0.000000   -0.000000   -3.769911   0.306539 
-1.611220  1.450749   -0.000000   -0.000000   -3.874631   0.303299 
-1.434647  1.593337   -0.000000   -0.000000   -3.979351   0.300030 
-1.246907  1.716221   -0.000000   -0.000000   -4.084070   0.296947 
-1.050812  1.820060   -0.000000   -0.000000   -4.188790   0.294261 
-0.848606  1.906001   -0.000000   -0.000000   -4.293510   0.292185 
-0.641884  1.975515   -0.000000   -0.000000   -4.398230   0.290932 
-0.431538  2.030226   -0.000000   -0.000000   -4.502949   0.290715 
-0.217691  2.071193   -0.000000   -0.000000   -4.607669   0.291671 
-0.000000  2.097831   -0.000000   -0.000000   -4.712389   0.293745 
0.221667  2.109021   -0.000000   -0.000000   -4.817109   0.296848 
0.447093  2.103408   -0.000000   -0.000000   -4.921828   0.300894 
0.675663  2.079476   -0.000000   -0.000000   -5.026548   0.305793 
0.906328  2.035646   -0.000000   -0.000000   -5.131268   0.311459 
1.137592  1.970368   -0.000000   -0.000000   -5.235988   0.317803 
1.367510  1.882217   -0.000000   -0.000000   -5.340708   0.324738 
1.593668  1.769947   -0.000000   -0.000000   -5.445427   0.332167 
1.812474  1.631959   -0.000000   -0.000000   -5.550147   0.339858 
2.019014  1.466899   -0.000000   -0.000000   -5.654867   0.347460 
2.207677  1.274603   -0.000000   -0.000000   -5.759587   0.354623 
2.372445  1.056281   -0.000000   -0.000000   -5.864306   0.360995 
2.507206  0.814641   -0.000000   -0.000000   -5.969026   0.366223 
2.606093  0.553942   -0.000000   -0.000000   -6.073746   0.369957 
2.663843  0.279981   -0.000000   -0.000000   -6.178466   0.371843 
2.707901  -0.000000   0.236941   0.031416   -0.000000   0.375918 
2.671325  -0.280768   0.236695   0.031416   -0.104720   0.373017 
2.591928  -0.550931   0.236292   0.031416   -0.209440   0.368206 
2.474874  -0.804135   0.235769   0.031416   -0.314159   0.361869 
2.326066  -1.035631   0.235164   0.031416   -0.418879   0.354389 
2.151762  -1.242320   0.234513   0.031416   -0.523599   0.346152 
1.958202  -1.422717   0.233849   0.031416   -0.628319   0.337540 
1.751260  -1.576842   0.233203   0.031416   -0.733038   0.328939 
1.536141  -1.706057   0.232603   0.031416   -0.837758   0.320731 
1.317086  -1.812813   0.232073   0.031416   -0.942478   0.313297 
1.096574  -1.899322   0.231624   0.031416   -1.047198   0.306843 
0.875649  -1.966739   0.231250   0.031416   -1.151917   0.301373 
0.655054  -2.016049   0.230948   0.031416   -1.256637   0.296876 
0.435337  -2.048099   0.230714   0.031416   -1.361357   0.293344 
0.216890  -2.063570   0.230546   0.031416   -1.466077   0.290766 
0.000000  -2.062960   0.230439   0.031416   -1.570796   0.289133 
-0.215103  -2.046568   0.230394   0.031416   -1.675516   0.288435 
-0.428196  -2.014502   0.230409   0.031416   -1.780236   0.288662 
-0.638975  -1.966563   0.230482   0.031416   -1.884956   0.289789 
-0.846703  -1.901725   0.230606   0.031416   -1.989675   0.291688 
-1.050048  -1.818736   0.230770   0.031416   -2.094395   0.294194 
-1.247137  -1.716537   0.230966   0.031416   -2.199115   0.297143 
-1.435603  -1.594398   0.231182   0.031416   -2.303835   0.300368 
-1.612653  -1.452039   0.231409   0.031416   -2.408554   0.303706 
-1.775173  -1.289738   0.231634   0.031416   -2.513274   0.306990 
-1.919841  -1.108421   0.231846   0.031416   -2.617994   0.310056 
-2.043273  -0.909724   0.232034   0.031416   -2.722714   0.312739 
-2.142572  -0.696164   0.232189   0.031416   -2.827433   0.314931 
-2.215858  -0.470995   0.232309   0.031416   -2.932153   0.316626 
-2.261785  -0.237723   0.232395   0.031416   -3.036873   0.317828 
-2.279503  -0.000000   0.232446   0.031416   -3.141593   0.318539 
-2.268665  0.238446   0.232462   0.031416   -3.246312   0.318763 
-2.229436  0.473881   0.232443   0.031416   -3.351032   0.318504 
-2.162490  0.702635   0.232390   0.031416   -3.455752   0.317764 
-2.068986  0.921172   0.232304   0.031416   -3.560472   0.316548 
-1.950620  1.126191   0.232184   0.031416   -3.665191   0.314870 
-1.810114  1.315125   0.232042   0.031416   -3.769911   0.312845 
-1.650674  1.486274   0.231888   0.031416   -3.874631   0.310647 
-1.475436  1.638638   0.231735   0.031416   -3.979351   0.308451 
-1.287321  1.771845   0.231595   0.031416   -4.084070   0.306432 
-1.088918  1.886061   0.231481   0.031416   -4.188790   0.304765 
-0.882387  1.981873   0.231403   0.031416   -4.293510   0.303623 
-0.669389  2.060167   0.231373   0.031416   -4.398230   0.303183 
-0.451042  2.121985   0.231403   0.031416   -4.502949   0.303618 
-0.227858  2.167923   0.231500   0.031416   -4.607669   0.305040 
-0.000000  2.197217   0.231662   0.031416   -4.712389   0.307395 
0.232144  2.208700   0.231884   0.031416   -4.817109   0.310601 
0.467850  2.201059   0.232164   0.031416   -4.921828   0.314579 
0.706022  2.172912   0.232496   0.031416   -5.026548   0.319246 
0.945174  2.122895   0.232878   0.031416   -5.131268   0.324522 
1.183422  2.049746   0.233306   0.031416   -5.235988   0.330325 
1.418496  1.952393   0.233776   0.031416   -5.340708   0.336575 
1.647738  1.829998   0.234282   0.031416   -5.445427   0.343184 
1.867501  1.681506   0.234811   0.031416   -5.550147   0.349946 
2.073045  1.506156   0.235338   0.031416   -5.654867   0.356557 
2.259083  1.304282   0.235838   0.031416   -5.759587   0.362712 
2.420043  1.077473   0.236283   0.031416   -5.864306   0.368104 
2.550347  0.828658   0.236646   0.031416   -5.969026   0.372427 
2.644716  0.562152   0.236895   0.031416   -6.073746   0.375374 
2.698481  0.283622   0.237003   0.031416   -6.178466   0.376640 
2.736470  -0.000000   0.474389   0.062832   -0.000000   0.380242 
2.698697  -0.283644   0.473867   0.062832   -0.104720   0.377203 
2.619239  -0.556736   0.473060   0.062832   -0.209440   0.372444 
2.502847  -0.813224   0.472035   0.062832   -0.314159   0.366306 
2.354979  -1.048504   0.470859   0.062832   -0.418879   0.359126 
2.181452  -1.259462   0.469595   0.062832   -0.523599   0.351242 
1.988112  -1.444448   0.468303   0.062832   -0.628319   0.342994 
1.780520  -1.603188   0.467040   0.062832   -0.733038   0.334718 
1.563680  -1.736642   0.465854   0.062832   -0.837758   0.326754 
1.341770  -1.846788   0.464791   0.062832   -0.942478   0.319436 
1.117465  -1.935506   0.463870   0.062832   -1.047198   0.312956 
0.892187  -2.003884   0.463087   0.062832   -1.151917   0.307335 
0.667042  -2.052944   0.462437   0.062832   -1.256637   0.302586 
0.442892  -2.083642   0.461915   0.062832   -1.361357   0.298720 
0.220386  -2.096835   0.461519   0.062832   -1.466077   0.295748 
0.000000  -2.093239   0.461246   0.062832   -1.570796   0.293683 
-0.217924  -2.073406   0.461095   0.062832   -1.675516   0.292535 
-0.433128  -2.037705   0.461066   0.062832   -1.780236   0.292317 
-0.645349  -1.986181   0.461159   0.062832   -1.884956   0.293022 
-0.853931  -1.917960   0.461358   0.062832   -1.989675   0.294533 
-1.057643  -1.831891   0.461644   0.062832   -2.094395   0.296689 
-1.254735  -1.726995   0.461997   0.062832   -2.199115   0.299331 
-1.442975  -1.602587   0.462398   0.062832   -2.303835   0.302300 
-1.619719  -1.458402   0.462825   0.062832   -2.408554   0.305436 
-1.782000  -1.294699   0.463259   0.062832   -2.513274   0.308578 
-1.926640  -1.112346   0.463675   0.062832   -2.617994   0.311567 
-2.050389  -0.912892   0.464051   0.062832   -2.722714   0.314244 
-2.150458  -0.698726   0.464372   0.062832   -2.827433   0.316507 
-2.225052  -0.472949   0.464636   0.062832   -2.932153   0.318354 
-2.272876  -0.238889   0.464842   0.062832   -3.036873   0.319793 
-2.293088  -0.000000   0.464992   0.062832   -3.141593   0.320834 
-2.285313  0.240196   0.465086   0.062832   -3.246312   0.321485 
-2.249637  0.478175   0.465125   0.062832   -3.351032   0.321755 
-2.186606  0.710471   0.465110   0.062832   -3.455752   0.321652 
-2.097208  0.933737   0.465043   0.062832   -3.560472   0.321185 
-1.982902  1.144829   0.464925   0.062832   -3.665191   0.320370 
-1.845984  1.341186   0.464771   0.062832   -3.769911   0.319301 
-1.689176  1.520941   0.464602   0.062832   -3.874631   0.318116 
-1.515195  1.682794   0.464436   0.062832   -3.979351   0.316953 
-1.326643  1.825967   0.464293   0.062832   -4.084070   0.315950 
-1.125908  1.950131   0.464193   0.062832   -4.188790   0.315245 
-0.915090  2.055325   0.464155   0.062832   -4.293510   0.314976 
-0.695933  2.141863   0.464198   0.062832   -4.398230   0.315282 
-0.469797  2.210221   0.464343   0.062832   -4.502949   0.316300 
-0.237594  2.260558   0.464602   0.062832   -4.607669   0.318116 
-0.000000  2.291965   0.464970   0.062832   -4.712389   0.320682 
0.242083  2.303265   0.465440   0.062832   -4.817109   0.323926 
0.487440  2.293226   0.466005   0.062832   -4.921828   0.327777 
0.734525  2.260634   0.466656   0.062832   -5.026548   0.332164 
0.981448  2.204367   0.467387   0.062832   -5.131268   0.337015 
1.225985  2.123469   0.468190   0.062832   -5.235988   0.342259 
1.465600  2.017226   0.469056   0.062832   -5.340708   0.347824 
1.697444  1.885202   0.469975   0.062832   -5.445427   0.353635 
1.917855  1.726844   0.470921   0.062832   -5.550147   0.359511 
2.122275  1.541923   0.471851   0.062832   -5.654867   0.365190 
2.305732  1.331215   0.472718   0.062832   -5.759587   0.370406 
2.463075  1.096632   0.473474   0.062832   -5.864306   0.374893 
2.589227  0.841291   0.474070   0.062832   -5.969026   0.378386 
2.679446  0.569534   0.474453   0.062832   -6.073746   0.380619 
2.729607  0.286893   0.474575   0.062832   -6.178466   0.381326 
2.761467  -0.000000   0.712092   0.094248   -0.000000   0.384461 
2.722752  -0.286173   0.711274   0.094248   -0.104720   0.381311 
2.643378  -0.561867   0.710066   0.094248   -0.209440   0.376613 
2.527721  -0.821306   0.708559   0.094248   -0.314159   0.370665 
2.380827  -1.060012   0.706842   0.094248   -0.418879   0.363765 
2.208112  -1.274854   0.705001   0.094248   -0.523599   0.356208 
2.015064  -1.464030   0.703115   0.094248   -0.628319   0.348293 
1.806960  -1.626994   0.701259   0.094248   -0.733038   0.340317 
1.588619  -1.764340   0.699501   0.094248   -0.837758   0.332576 
1.364164  -1.877610   0.697901   0.094248   -0.942478   0.325365 
1.136444  -1.968379   0.696489   0.094248   -1.047198   0.318862 
0.907229  -2.037669   0.695264   0.094248   -1.151917   0.313105 
0.677953  -2.086524   0.694222   0.094248   -1.256637   0.308124 
0.449769  -2.115997   0.693363   0.094248   -1.361357   0.303951 
0.223567  -2.127094   0.692684   0.094248   -1.466077   0.300614 
0.000000  -2.120728   0.692187   0.094248   -1.570796   0.298146 
-0.220475  -2.097676   0.691873   0.094248   -1.675516   0.296575 
-0.437557  -2.058542   0.691746   0.094248   -1.780236   0.295933 
-0.651008  -2.003598   0.691805   0.094248   -1.884956   0.296231 
-0.860239  -1.932128   0.692030   0.094248   -1.989675   0.297360 
-1.064115  -1.843101   0.692393   0.094248   -2.094395   0.299170 
-1.261009  -1.735630   0.692865   0.094248   -2.199115   0.301508 
-1.448833  -1.609092   0.693418   0.094248   -2.303835   0.304220 
-1.625101  -1.463248   0.694022   0.094248   -2.408554   0.307156 
-1.787011  -1.298340   0.694646   0.094248   -2.513274   0.310161 
-1.931550  -1.115181   0.695260   0.094248   -2.617994   0.313085 
-2.055617  -0.915220   0.695829   0.094248   -2.722714   0.315775 
-2.156547  -0.700705   0.696333   0.094248   -2.827433   0.318134 
-2.232607  -0.474555   0.696770   0.094248   -2.932153   0.320164 
-2.282527  -0.239903   0.697140   0.094248   -3.036873   0.321875 
-2.305447  -0.000000   0.697445   0.094248   -3.141593   0.323278 
-2.300929  0.241837   0.697686   0.094248   -3.246312   0.324383 
-2.268955  0.482281   0.697865   0.094248   -3.351032   0.325201 
-2.209922  0.718047   0.697984   0.094248   -3.455752   0.325744 
-2.124628  0.945945   0.698045   0.094248   -3.560472   0.326021 
-2.014290  1.162951   0.698051   0.094248   -3.665191   0.326049 
-1.880802  1.366483   0.698018   0.094248   -3.769911   0.325900 
-1.726440  1.554493   0.697970   0.094248   -3.874631   0.325677 
-1.553541  1.725382   0.697927   0.094248   -3.979351   0.325484 
-1.364423  1.877967   0.697914   0.094248   -4.084070   0.325425 
-1.161307  2.011442   0.697953   0.094248   -4.188790   0.325604 
-0.946254  2.125321   0.698068   0.094248   -4.293510   0.326124 
-0.721116  2.219368   0.698280   0.094248   -4.398230   0.327089 
-0.487505  2.293530   0.698615   0.094248   -4.502949   0.328603 
-0.246738  2.347559   0.699088   0.094248   -4.607669   0.330729 
-0.000000  2.380448   0.699692   0.094248   -4.712389   0.333427 
0.251309  2.391049   0.700418   0.094248   -4.817109   0.336637 
0.505513  2.378250   0.701256   0.094248   -4.921828   0.340300 
0.760649  2.341037   0.702194   0.094248   -5.026548   0.344359 
1.014477  2.278552   0.703224   0.094248   -5.131268   0.348754 
1.264490  2.190161   0.704333   0.094248   -5.235988   0.353428 
1.507943  2.075506   0.705511   0.094248   -5.340708   0.358320 
1.741865  1.934537   0.706745   0.094248   -5.445427   0.363368 
1.962618  1.767149   0.707996   0.094248   -5.550147   0.368418 
2.165828  1.573566   0.709208   0.094248   -5.654867   0.373240 
2.346822  1.354938   0.710319   0.094248   -5.759587   0.377604 
2.500836  1.113444   0.711265   0.094248   -5.864306   0.381278 
2.623240  0.852342   0.711981   0.094248   -5.969026   0.384032 
2.709773  0.575980   0.712399   0.094248   -6.073746   0.385635 
2.756783  0.289750   0.712457   0.094248   -6.178466   0.385855 
2.782501  -0.000000   0.949787   0.125664   -0.000000   0.388534 
2.743094  -0.288311   0.948655   0.125664   -0.104720   0.385300 
2.663912  -0.566232   0.947050   0.125664   -0.209440   0.380665 
2.549001  -0.828221   0.945079   0.125664   -0.314159   0.374890 
2.403055  -1.069909   0.942848   0.125664   -0.418879   0.368237 
2.231137  -1.288148   0.940457   0.125664   -0.523599   0.360969 
2.038424  -1.481002   0.938004   0.125664   -0.628319   0.353348 
1.829944  -1.647689   0.935577   0.125664   -0.733038   0.345634 
1.610356  -1.788481   0.933257   0.125664   -0.837758   0.338091 
1.383733  -1.904545   0.931118   0.125664   -0.942478   0.330978 
1.153074  -1.997183   0.929199   0.125664   -1.047198   0.324459 
0.920444  -2.067352   0.927504   0.125664   -1.151917   0.318587 
0.687564  -2.116105   0.926036   0.125664   -1.256637   0.313408 
0.455841  -2.144565   0.924797   0.125664   -1.361357   0.308967 
0.226380  -2.153861   0.923790   0.125664   -1.466077   0.305311 
0.000000  -2.145065   0.923021   0.125664   -1.570796   0.302485 
-0.222731  -2.119141   0.922494   0.125664   -1.675516   0.300534 
-0.441458  -2.076896   0.922217   0.125664   -1.780236   0.299504 
-0.655947  -2.018799   0.922195   0.125664   -1.884956   0.299421 
-0.865657  -1.944297   0.922401   0.125664   -1.989675   0.300189 
-1.069538  -1.852495   0.922799   0.125664   -2.094395   0.301665 
-1.266084  -1.742615   0.923352   0.125664   -2.199115   0.303706 
-1.453353  -1.614112   0.924025   0.125664   -2.303835   0.306169 
-1.629027  -1.466782   0.924781   0.125664   -2.408554   0.308912 
-1.790482  -1.300861   0.925583   0.125664   -2.513274   0.311791 
-1.934886  -1.117107   0.926390   0.125664   -2.617994   0.314664 
-2.059312  -0.916865   0.927162   0.125664   -2.722714   0.317388 
-2.161219  -0.702223   0.927872   0.125664   -2.827433   0.319873 
-2.238917  -0.475897   0.928519   0.125664   -2.932153   0.322118 
-2.291131  -0.240808   0.929104   0.125664   -3.036873   0.324133 
-2.316951  -0.000000   0.929627   0.125664   -3.141593   0.325927 
-2.315845  0.243405   0.930092   0.125664   -3.246312   0.327510 
-2.287660  0.486257   0.930499   0.125664   -3.351032   0.328890 
-2.232622  0.725423   0.930850   0.125664   -3.455752   0.330078 
-2.151324  0.957831   0.931149   0.125664   -3.560472   0.331082 
-2.044740  1.180531   0.931397   0.125664   -3.665191   0.331916 
-1.914400  1.390893   0.931610   0.125664   -3.769911   0.332630 
-1.762180  1.586674   0.931810   0.125664   -3.874631   0.333297 
-1.590090  1.765974   0.932017   0.125664   -3.979351   0.333989 
-1.400212  1.927226   0.932255   0.125664   -4.084070   0.334779 
-1.194636  2.069170   0.932544   0.125664   -4.188790   0.335739 
-0.975418  2.190825   0.932908   0.125664   -4.293510   0.336943 
-0.744538  2.291454   0.933369   0.125664   -4.398230   0.338462 
-0.503868  2.370513   0.933952   0.125664   -4.502949   0.340369 
-0.255130  2.427400   0.934670   0.125664   -4.607669   0.342708 
-0.000000  2.461054   0.935519   0.125664   -4.712389   0.345448 
0.259650  2.470400   0.936486   0.125664   -4.817109   0.348546 
0.521718  2.454488   0.937563   0.125664   -4.921828   0.351959 
0.783879  2.412532   0.938737   0.125664   -5.026548   0.355644 
1.043599  2.343961   0.939999   0.125664   -5.131268   0.359557 
1.298153  2.248467   0.941335   0.125664   -5.235988   0.363656 
1.544661  2.126043   0.942735   0.125664   -5.340708   0.367898 
1.780098  1.976999   0.944183   0.125664   -5.445427   0.372233 
2.000891  1.801610   0.945636   0.125664   -5.550147   0.376532 
2.202851  1.600465   0.947025   0.125664   -5.654867   0.380591 
2.381575  1.375003   0.948275   0.125664   -5.759587   0.384208 
2.532640  1.127604   0.949311   0.125664   -5.864306   0.387179 
2.651801  0.861622   0.950057   0.125664   -5.969026   0.389301 
2.735201  0.581385   0.950434   0.125664   -6.073746   0.390369 
2.779583  0.292146   0.950367   0.125664   -6.178466   0.390181 
2.799191  -0.000000   1.187188   0.157080   -0.000000   0.392419 
2.759334  -0.290018   1.185736   0.157080   -0.104720   0.389127 
2.680413  -0.569739   1.183737   0.157080   -0.209440   0.384550 
2.566208  -0.833812   1.181312   0.157080   -0.314159   0.378922 
2.421122  -1.077953   1.178582   0.157080   -0.418879   0.372476 
2.249936  -1.299001   1.175660   0.157080   -0.523599   0.365446 
2.057569  -1.494911   1.172656   0.157080   -0.628319   0.358066 
1.848849  -1.664711   1.169669   0.157080   -0.733038   0.350571 
1.628301  -1.808411   1.166794   0.157080   -0.837758   0.343194 
1.399956  -1.926874   1.164114   0.157080   -0.942478   0.336166 
1.166927  -2.021177   1.161679   0.157080   -1.047198   0.329643 
0.931512  -2.092209   1.159497   0.157080   -1.151917   0.323687 
0.695659  -2.141018   1.157579   0.157080   -1.256637   0.318354 
0.460985  -2.168765   1.155933   0.157080   -1.361357   0.313701 
0.228776  -2.176662   1.154566   0.157080   -1.466077   0.309785 
0.000000  -2.165896   1.153490   0.157080   -1.570796   0.306662 
-0.224668  -2.137574   1.152713   0.157080   -1.675516   0.304389 
-0.444807  -2.092654   1.152249   0.157080   -1.780236   0.303022 
-0.660162  -2.031770   1.152105   0.157080   -1.884956   0.302599 
-0.870214  -1.954533   1.152253   0.157080   -1.989675   0.303035 
-1.073987  -1.860200   1.152648   0.157080   -2.094395   0.304200 
-1.270084  -1.748120   1.153249   0.157080   -2.199115   0.305961 
-1.456710  -1.617841   1.154015   0.157080   -2.303835   0.308189 
-1.631722  -1.469209   1.154902   0.157080   -2.408554   0.310751 
-1.792685  -1.302462   1.155869   0.157080   -2.513274   0.313518 
-1.936964  -1.118307   1.156870   0.157080   -2.617994   0.316358 
-2.061822  -0.917982   1.157860   0.157080   -2.722714   0.319140 
-2.164848  -0.703402   1.158808   0.157080   -2.827433   0.321780 
-2.244370  -0.477056   1.159711   0.157080   -2.932153   0.324274 
-2.299074  -0.241642   1.160569   0.157080   -3.036873   0.326626 
-2.327964  -0.000000   1.161382   0.157080   -3.141593   0.328840 
-2.330382  0.244933   1.162151   0.157080   -3.246312   0.330920 
-2.306011  0.490158   1.162877   0.157080   -3.351032   0.332869 
-2.254880  0.732655   1.163560   0.157080   -3.455752   0.334693 
-2.177367  0.969426   1.164201   0.157080   -3.560472   0.336394 
-2.074207  1.197544   1.164801   0.157080   -3.665191   0.337981 
-1.946605  1.414292   1.165372   0.157080   -3.769911   0.339483 
-1.796109  1.617224   1.165931   0.157080   -3.874631   0.340946 
-1.624462  1.804148   1.166494   0.157080   -3.979351   0.342415 
-1.433564  1.973131   1.167080   0.157080   -4.084070   0.343936 
-1.225424  2.122496   1.167707   0.157080   -4.188790   0.345553 
-1.002129  2.250818   1.168392   0.157080   -4.293510   0.347313 
-0.765805  2.356906   1.169154   0.157080   -4.398230   0.349261 
-0.518594  2.439792   1.170013   0.157080   -4.502949   0.351441 
-0.262611  2.498576   1.170980   0.157080   -4.607669   0.353882 
-0.000000  2.532195   1.172053   0.157080   -4.712389   0.356566 
0.266933  2.539698   1.173222   0.157080   -4.817109   0.359469 
0.535713  2.520331   1.174480   0.157080   -4.921828   0.362566 
0.803711  2.473569   1.175819   0.157080   -5.026548   0.365831 
1.068167  2.399143   1.177230   0.157080   -5.131268   0.369241 
1.326215  2.297072   1.178705   0.157080   -5.235988   0.372769 
1.574916  2.167686   1.180235   0.157080   -5.340708   0.376391 
1.811270  2.011619   1.181807   0.157080   -5.445427   0.380078 
2.031808  1.829448   1.183375   0.157080   -5.550147   0.383717 
2.232518  1.622020   1.184858   0.157080   -5.654867   0.387125 
2.409238  1.390974   1.186171   0.157080   -5.759587   0.390118 
2.557825  1.138817   1.187230   0.157080   -5.864306   0.392512 
2.674343  0.868947   1.187946   0.157080   -5.969026   0.394124 
2.755250  0.585647   1.188233   0.157080   -6.073746   0.394768 
2.797593  0.294039   1.188007   0.157080   -6.178466   0.394261 
2.811171  -0.000000   1.423998   0.188496   -0.000000   0.396077 
2.771098  -0.291254   1.422222   0.188496   -0.104720   0.392752 
2.692471  -0.572302   1.419829   0.188496   -0.209440   0.388222 
2.578875  -0.837927   1.416953   0.188496   -0.314159   0.382704 
2.434504  -1.083911   1.413726   0.188496   -0.418879   0.376410 
2.263934  -1.307083   1.410275   0.188496   -0.523599   0.369557 
2.071897  -1.505321   1.406721   0.188496   -0.628319   0.362357 
1.863072  -1.677517   1.403177   0.188496   -0.733038   0.355026 
1.641885  -1.823498   1.399748   0.188496   -0.837758   0.347777 
1.412328  -1.943903   1.396527   0.188496   -0.942478   0.340824 
1.177589  -2.039644   1.393572   0.188496   -1.047198   0.334313 
0.940119  -2.111542   1.390900   0.188496   -1.151917   0.328310 
0.702027  -2.160616   1.388526   0.188496   -1.256637   0.322879 
0.465081  -2.188033   1.386463   0.188496   -1.361357   0.318082 
0.230708  -2.195038   1.384725   0.188496   -1.466077   0.313982 
0.000000  -2.182883   1.383326   0.188496   -1.570796   0.310640 
-0.226263  -2.152753   1.382280   0.188496   -1.675516   0.308119 
-0.447582  -2.105709   1.381606   0.188496   -1.780236   0.306482 
-0.663649  -2.042501   1.381315   0.188496   -1.884956   0.305772 
-0.873941  -1.962903   1.381375   0.188496   -1.989675   0.305918 
-1.077533  -1.866342   1.381738   0.188496   -2.094395   0.306802 
-1.273129  -1.752312   1.382358   0.188496   -2.199115   0.308307 
-1.459077  -1.620469   1.383192   0.188496   -2.303835   0.310319 
-1.633407  -1.470726   1.384194   0.188496   -2.408554   0.312719 
-1.793887  -1.303335   1.385320   0.188496   -2.513274   0.315391 
-1.938090  -1.118957   1.386522   0.188496   -2.617994   0.318220 
-2.063487  -0.918723   1.387752   0.188496   -2.722714   0.321088 
-2.167797  -0.704360   1.388976   0.188496   -2.827433   0.323916 
-2.249340  -0.478112   1.390189   0.188496   -2.932153   0.326694 
-2.306725  -0.242447   1.391388   0.188496   -3.036873   0.329415 
-2.338836  -0.000000   1.392570   0.188496   -3.141593   0.332075 
-2.344849  0.246454   1.393731   0.188496   -3.246312   0.334667 
-2.324252  0.494035   1.394868   0.188496   -3.351032   0.337186 
-2.276859  0.739796   1.395979   0.188496   -3.455752   0.339626 
-2.202820  0.980759   1.397059   0.188496   -3.560472   0.341983 
-2.102636  1.213957   1.398107   0.188496   -3.665191   0.344253 
-1.977246  1.436553   1.399127   0.188496   -3.769911   0.346448 
-1.827944  1.645888   1.400130   0.188496   -3.874631   0.348592 
-1.656281  1.839487   1.401125   0.188496   -3.979351   0.350708 
-1.464042  2.015080   1.402125   0.188496   -4.084070   0.352818 
-1.253209  2.170622   1.403139   0.188496   -4.188790   0.354945 
-1.025940  2.304298   1.404178   0.188496   -4.293510   0.357113 
-0.784531  2.414539   1.405255   0.188496   -4.398230   0.359344 
-0.531396  2.500021   1.406381   0.188496   -4.502949   0.361661 
-0.269027  2.559620   1.407565   0.188496   -4.607669   0.364080 
-0.000000  2.592329   1.408807   0.188496   -4.712389   0.366601 
0.272994  2.597369   1.410107   0.188496   -4.817109   0.369220 
0.547168  2.574223   1.411463   0.188496   -4.921828   0.371932 
0.819659  2.522651   1.412875   0.188496   -5.026548   0.374734 
1.087560  2.442701   1.414342   0.188496   -5.131268   0.377621 
1.347947  2.334713   1.415863   0.188496   -5.235988   0.380590 
1.597907  2.199330   1.417436   0.188496   -5.340708   0.383637 
1.834545  2.037469   1.419059   0.188496   -5.445427   0.386752 
2.054540  1.849916   1.420680   0.188496   -5.550147   0.389839 
2.254046  1.637661   1.422207   0.188496   -5.654867   0.392724 
2.429096  1.402439   1.423546   0.188496   -5.759587   0.395234 
2.575762  1.146803   1.424598   0.188496   -5.864306   0.397196 
2.690327  0.874140   1.425266   0.188496   -5.969026   0.398435 
2.769465  0.588668   1.425451   0.188496   -6.073746   0.398777 
2.810417  0.295387   1.425058   0.188496   -6.178466   0.398049 
2.818092  -0.000000   1.659897   0.219911   -0.000000   0.399466 
2.778028  -0.291983   1.657805   0.219911   -0.104720   0.396130 
2.699690  -0.573837   1.655013   0.219911   -0.209440   0.391632 
2.586554  -0.840422   1.651673   0.219911   -0.314159   0.386179 
2.442699  -1.087560   1.647933   0.219911   -0.418879   0.379974 
2.272583  -1.312076   1.643935   0.219911   -0.523599   0.373222 
2.080833  -1.511813   1.639816   0.219911   -0.628319   0.366129 
1.872038  -1.685590   1.635702   0.219911   -0.733038   0.358899 
1.650562  -1.833135   1.631711   0.219911   -0.837758   0.351736 
1.420368  -1.954969   1.627949   0.219911   -0.942478   0.344844 
1.184665  -2.051900   1.624483   0.219911   -1.047198   0.338364 
0.945969  -2.124682   1.621334   0.219911   -1.151917   0.332362 
0.706467  -2.174282   1.618519   0.219911   -1.256637   0.326901 
0.468014  -2.201831   1.616055   0.219911   -1.361357   0.322042 
0.232128  -2.208554   1.613959   0.219911   -1.466077   0.317848 
0.000000  -2.195699   1.612248   0.219911   -1.570796   0.314381 
-0.227495  -2.164469   1.610939   0.219911   -1.675516   0.311703 
-0.449761  -2.115958   1.610053   0.219911   -1.780236   0.309877 
-0.666404  -2.050982   1.609604   0.219911   -1.884956   0.308946 
-0.876866  -1.969474   1.609559   0.219911   -1.989675   0.308853 
-1.080249  -1.871045   1.609870   0.219911   -2.094395   0.309497 
-1.275339  -1.755353   1.610491   0.219911   -2.199115   0.310780 
-1.460620  -1.622183   1.611377   0.219911   -2.303835   0.312601 
-1.634299  -1.471529   1.612484   0.219911   -2.408554   0.314862 
-1.794347  -1.303669   1.613768   0.219911   -2.513274   0.317463 
-1.938561  -1.119229   1.615183   0.219911   -2.617994   0.320304 
-2.064633  -0.919234   1.616683   0.219911   -2.722714   0.323287 
-2.170416  -0.705211   1.618232   0.219911   -2.827433   0.326340 
-2.254186  -0.479142   1.619820   0.219911   -2.932153   0.329437 
-2.314440  -0.243257   1.621437   0.219911   -3.036873   0.332560 